167
Frame 54: Geometry 55, Energy: -279.98901 Hartree
B -15.90541808844142 -5.01934498140831 0.8371319201463177
B -15.90544297206584 5.178236156207635 0.8364975008825192
O -14.68846361138938 5.850687096102466 0.837510762790694
B -13.47147863101157 5.178250413804659 0.8383928233922039
O -13.49998559139411 3.788307826430506 0.838200970289384
B -14.68844573287293 3.067947450988612 0.8372444675253874
O -15.87691593559881 3.788293115464654 0.8363344939002919
C -14.6884348814964 1.503484321833545 0.8369739485743658
C -13.49257584393314 0.7732343519656041 0.8372260116264908
C -13.4925864530944 -0.6143038787365241 0.8370484459080115
C -14.68842851129056 -1.344546010281766 0.8366291169516847
C -15.88427419933984 -0.6143094752726721 0.8363766139168377
C -15.88429136848879 0.7732292678401097 0.8365072598288876
B -14.688424160834 -2.909170479634091 0.8365123994208552
B -8.208067260763595 8.013407720691752 0.8425913207226118
O -15.87691909922544 -3.629250992938136 0.8369385641411062
C -9.598966203215637 7.296817061272606 0.8415328788846109
C -9.673987830989368 5.897193224917919 0.8422489432515287
C -10.89383147296071 5.237574845101924 0.8412345176262346
C -12.10522439839347 5.941956736910355 0.8395006186230379
C -12.0310453223542 7.341098185012186 0.8388122151019166
C -10.8097701603483 8.001582077843224 0.8397689599527225
H -12.9512590442214 7.917204824219206 0.8374760967882922
H -8.753523770004193 5.321646687824949 0.8436234309046868
H -10.91670291235981 4.152238928639875 0.841786193655978
H -12.54861128265554 -1.150507905540645 0.8372477519359487
H -12.54859701909053 1.309438098626277 0.8375871975034869
H -16.82824724276165 -1.150516572300649 0.8360594768318264
H -16.828272078772 1.309429393407931 0.8362762154985337
B -6.842305483709963 10.03603720779408 0.8416147026164111
O -8.07966320201569 9.396141453862146 0.8411793752945343
H -10.78805058936595 9.087050907890097 0.8391600573177247
C -12.03326315230934 -7.183032409114496 0.8365932061815015
C -12.105834930123 -5.783788645681048 0.8362612794108853
C -10.89375773083876 -5.080633096578639 0.8357656251875767
C -9.67469733337396 -5.74164982190905 0.8355784489024886
C -9.60127922195873 -7.14134498148729 0.8359057886040682
C -10.81274380339342 -7.844870257797422 0.8364289036427833
B -8.210582853606246 -7.858569363817253 0.8356341176958132
O -7.04159384076096 -7.106489816184129 0.8346493548807499
B -5.77925798816772 -7.684242211753809 0.8341663847960364
O -5.707098488637964 -9.076555864331654 0.8348106626269385
B -6.844706861491706 -9.880510387863483 0.8360350760517766
O -8.082645544694051 -9.241652308112778 0.836234920186291
C -6.791061429105248 -11.45192025073026 0.8373083194953859
C -5.598151459296572 -12.18832201349 0.8384567763985981
C -5.597383662046509 -13.57920938940248 0.8397796888336683
C -6.789594022172679 -14.31681758034315 0.8400042548404014
C -7.982526917018298 -13.57877362697761 0.8387640438436005
C -7.98320003709821 -12.19110595798479 0.8374962398856118
B -13.47142254835482 -5.019341053882311 0.8364594379274926
O -14.68841755074293 -5.691603746821621 0.8369341309988187
B -0.923911890581895 -4.160916456466548 0.8319702281791428
C -2.2302712171212 -5.034533003657899 0.8309376510676125
C -2.102465759107437 -6.432976641166589 0.8286663690943255
C -3.207435233325772 -7.271918311967807 0.8295514399502503
C -4.510677880740753 -6.759654840897605 0.8328668671647823
C -4.640166849164246 -5.362624067894767 0.8351751003711155
C -3.533700295710672 -4.521829044225106 0.8342278746346562
H -5.635631663239555 -4.929304847706121 0.8379132272865543
H -1.1081457894694 -6.868506431469289 0.8263557738992785
H -3.0618315195774 -8.347737691984502 0.8278029411206839
H -4.649543327609793 -14.10895772984019 0.8407066811083104
H -4.6508640845452 -11.65759659638233 0.8383243828827001
H -8.928667580580591 -14.11120821611757 0.838856598120002
H -8.929875450810608 -11.65962420746808 0.8366360255080409
H -8.75354623354337 -5.167224944905709 0.835146604480581
H -10.79218726274528 -8.930367753768074 0.8366674988238099
H -12.95417104463536 -7.758038885632383 0.8369551812391338
C -4.640884206161166 5.517262310250895 0.8510454725623698
C -4.508151822548983 6.913879344399105 0.8472648935235831
C -3.203705562098454 7.422850305830296 0.8448565084019962
C -2.100433200502 6.58148947746321 0.8456359545060487
C -2.231526351154079 5.183158964156406 0.849153455237537
C -3.536556622373043 4.673927004436129 0.8521125472487993
B -0.929953900173643 4.306526653358128 0.8472990150316458
O 0.2786362601044062 4.967174817499378 0.8389982466801141
B 1.487261565018127 4.30659533116218 0.8305989550454503
O 1.464990345324079 2.915525461157891 0.8257021533495015
B 0.2787084789269635 2.215963606215228 0.8387843204600757
O -0.9075754724874379 2.915434759630271 0.8520835917976624
O 1.455779517547368 -2.774790846765138 0.8510050194553274
B 8.765403055757453 8.013428148942666 0.8330675248347682
O 7.595675547587429 7.261301280874749 0.8310722118997559
H 11.47290559719241 -3.9952754848902 0.8386754274196061
H 13.50859297676081 7.917179940928558 0.8375317640439768
H 4.237843750304778 -3.446235160522164 0.8392408845735549
B 0.2787280683938079 -2.039892050578528 0.8387791081395973
O -13.499923251949 -3.629245443583984 0.8362655302988435
B -5.776918677318951 7.840096229642204 0.8452255420794829
O -7.038350627355785 7.261267911899711 0.8448420923654717
B 6.334253801963902 7.840146338337587 0.8311707042694363
O -0.8983900943073853 -2.774738545446241 0.8268699028533589
C 5.065473177338217 6.913945229359169 0.8296821619831022
C 5.198185632219107 5.517334917614757 0.8254799889636097
C 4.093839415262668 4.674014095613016 0.8248595438862844
C 2.788825458885059 5.183264738353142 0.8286378005152536
C 2.657751429885951 6.58159667751632 0.8326237122863055
C 3.761033592121924 7.422939148659932 0.8329995108417946
H -3.680533697078086 -3.446227679288077 0.8368669535003916
H 1.662411630417657 7.014699118174054 0.8356097405566386
H 6.194573549426726 5.08621274951778 0.822816223530315
H 4.243816755721043 3.598863456240839 0.8216101839534523
H 11.47400773261996 4.152231278342652 0.8331574774881096
H 9.310836553328823 5.32165624034374 0.8316515463806311
O 8.63700958858837 9.396162770819426 0.8346348288045342
H 11.34539161647367 9.087044750214369 0.8361657065673136
H -1.10509225732842 7.014589113042017 0.8433168635928652
H -10.91549367521063 -3.995272643405073 0.8354913769869355
H -3.686531414146851 3.598774817449917 0.8549640587139585
H -5.637288049476714 5.086170757913743 0.8530961997850469
B 7.39965929944376 10.03606872095719 0.8346544770471722
O -5.704074065096898 9.231498476567289 0.8435015732412108
O 6.261417130376775 9.231544113527011 0.8331331867202539
H 3.612725691202346 8.498345567985361 0.8362178544916374
H -3.055372218694632 8.498253742810983 0.8420399281395685
C 2.659855841661624 -6.433022511414305 0.8502088755669412
C 2.787636447973994 -5.034588013205672 0.8470133360192236
C 4.09104775620126 -4.521838033274362 0.8425015607018752
C 5.197532995570505 -5.362609816791944 0.8413696666499093
C 5.068069254517491 -6.75964304308884 0.8445930487364257
C 3.764843420391135 -7.271939063488285 0.849113204351982
B 6.336645169756209 -7.684211932528052 0.842918356278315
O 7.598989424153777 -7.106473381128771 0.8417857788140304
B 8.767968967601247 -7.858556955754411 0.8403696415902938
O 8.640031723929667 -9.241640990116894 0.8398374256582533
B 7.402081804100165 -9.880484828479 0.8406763120750251
O 6.264485490183285 -9.076532532652822 0.8424276270828337
C 7.348427246342241 -11.4518969730082 0.8393489695359884
C 8.540564245838965 -12.19108112380509 0.838197750930229
C 8.539885642880154 -13.57874923649439 0.8368295001558063
C 7.346949520472696 -14.31678577041599 0.8364032206381287
C 6.154739242830594 -13.57917867790043 0.8375619422025546
C 6.155512404914676 -12.18829120314027 0.8390443242443719
B 1.48128404948322 -4.160945247879193 0.8461714267792357
O 0.2786771469293378 -4.832634131398562 0.8391219314355864
C 12.66323815320305 -5.783796534282503 0.8378644452354043
C 12.59066011981747 -7.183039840691911 0.8378481133642286
C 11.37013665021605 -7.844872232366101 0.8385725624401931
C 10.15867684068986 -7.141340575203801 0.8394090290208811
C 10.23210096261668 -5.741646851743615 0.8394059791824843
C 11.45116393367826 -5.080636002983048 0.8386374067243547
H 9.310952051995249 -5.167218100198235 0.8400305812297426
H 13.51156309934855 -7.758053765116703 0.8372713435861796
H 11.34958120559008 -8.930369709625761 0.8385453324579316
H 9.48602260993813 -14.11118925038633 0.8359728839612751
H 9.487239378062215 -11.65959900567702 0.8383641207295849
H 5.20689715833919 -14.10892429847191 0.8372931008411506
H 5.208227937218096 -11.65756193165032 0.839880133064003
H 6.192987625141864 -4.92927560888344 0.8377159625179968
H 3.619275541360729 -8.347761224920781 0.8516382317483989
H 1.665538467494818 -6.868556621307225 0.8535661768665654
C 10.23130544756112 5.897194968841555 0.8329537024765445
C 10.15629382148456 7.296818679847703 0.8338007143189126
C 11.36710303463023 8.001576082106373 0.8354748699740088
C 12.58837377960319 7.341082972914445 0.8362475786659129
C 12.66254284340216 5.941939875466011 0.8354787926387925
C 11.45114485806637 5.237567499164813 0.8338028985459278
O 0.07301293204190187 0.9722324389705013 -1.932210240508297
O -2.571112863513361 -0.4005952802512091 1.116122104152684
C 0.145905223128809 0.6016051132123814 -0.8421493282770891
O 0.4844439859466143 0.9705361078418107 3.609570434082408
C 0.4117894140365222 0.6005527637481017 2.519288441073828
Fe 0.2789017231497846 0.1093902753541961 0.8383675454276398
O 3.128858442545407 -0.4009118973445863 0.5600069443818001
C 2.003567946791611 -0.2106847210378077 0.6775355124783446
C -1.445768436605142 -0.2105577344780214 0.9988084897351778
VEC1 29.93423998417354 0.0 0.0
VEC2 0.0 25.92379998495415 0.0
