.. _PourbaixDiagrams: 

Pourbaix Diagrams with the Amsterdam Modeling Suite
***************************************************


The approach to generate Pourbaix diagrams is described in further detail in the following articles:

M.\ C. Groenenboom, K. Saravanan†, Y. Zhu†, J. M. Carr, A. Marjolin, G. G. Faura, E. C. Yu, R. N. Dominey, and J. A. Keith
*Structural and Substituent Group Effects on Multielectron Standard Reduction Potentials of Aromatic N-Heterocycles*, 
`J. Phys. Chem. A 5 (2016), 6888-6894. <https://doi.org/10.1021/acs.jpca.6b07291>`__

A.\ Marjolin and J. A. Keith
*Thermodynamic Descriptors for Molecules That Catalyze Efficient CO2 Electroreductions*,
`ACS Catal. 5 (2015), 1123-1130. <https://doi.org/10.1021/cs501406j>`__

J.\ A. Keith and E. A. Carter
*Electrochemical reactivities of pyridinium in solution: consequences for CO2reduction mechanisms*,
`Chem. Sci. 4 (2013), 1490-1496. <https://doi.org/10.1039/C3SC22296A>`__


